49
 Atoms. Timestep: 0
1 0.472871 0.472871 0
1 1.41861 0.472871 0
1 2.36435 0.472871 0
1 3.3101 0.472871 0
1 4.25584 0.472871 0
1 5.20158 0.472871 0
1 6.14732 0.472871 0
1 0.472871 1.41861 0
1 1.41861 1.41861 0
1 2.36435 1.41861 0
1 3.3101 1.41861 0
1 4.25584 1.41861 0
1 5.20158 1.41861 0
1 6.14732 1.41861 0
1 0.472871 2.36435 0
1 1.41861 2.36435 0
1 2.36435 2.36435 0
1 3.3101 2.36435 0
1 4.25584 2.36435 0
1 5.20158 2.36435 0
1 6.14732 2.36435 0
1 0.472871 3.3101 0
1 1.41861 3.3101 0
1 2.36435 3.3101 0
1 3.3101 3.3101 0
1 4.25584 3.3101 0
1 5.20158 3.3101 0
1 6.14732 3.3101 0
1 0.472871 4.25584 0
1 1.41861 4.25584 0
1 2.36435 4.25584 0
1 3.3101 4.25584 0
1 4.25584 4.25584 0
1 5.20158 4.25584 0
1 6.14732 4.25584 0
1 0.472871 5.20158 0
1 1.41861 5.20158 0
1 2.36435 5.20158 0
1 3.3101 5.20158 0
1 4.25584 5.20158 0
1 5.20158 5.20158 0
1 6.14732 5.20158 0
1 0.472871 6.14732 0
1 1.41861 6.14732 0
1 2.36435 6.14732 0
1 3.3101 6.14732 0
1 4.25584 6.14732 0
1 5.20158 6.14732 0
1 6.14732 6.14732 0
49
 Atoms. Timestep: 10
1 0.436231 0.485744 0
1 1.4048 0.434969 0
1 2.34897 0.433334 0
1 3.29328 0.399376 0
1 4.22884 0.426238 0
1 5.1749 0.408702 0
1 6.17546 0.453374 0
1 0.409901 1.47586 0
1 1.3988 1.40222 0
1 2.38305 1.39849 0
1 3.33011 1.36738 0
1 4.26924 1.40441 0
1 5.19732 1.39569 0
1 6.16671 1.42502 0
1 0.406862 2.42189 0
1 1.3995 2.33362 0
1 2.35188 2.34479 0
1 3.27945 2.35792 0
1 4.21226 2.34311 0
1 5.14983 2.3999 0
1 6.14253 2.37699 0
1 0.38416 3.34766 0
1 1.35325 3.28327 0
1 2.32251 3.29295 0
1 3.31951 3.32505 0
1 4.30539 3.29167 0
1 5.26101 3.33825 0
1 6.20457 3.30482 0
1 0.373171 4.25989 0
1 1.35471 4.26095 0
1 2.35854 4.25184 0
1 3.33525 4.28428 0
1 4.2815 4.24813 0
1 5.21038 4.25232 0
1 6.15891 4.23324 0
1 0.497876 5.20151 0
1 1.45631 5.19011 0
1 2.40864 5.23519 0
1 3.35455 5.23725 0
1 4.30068 5.16968 0
1 5.26455 5.20463 0
1 6.28793 5.18544 0
1 0.430316 6.18679 0
1 1.43241 6.13894 0
1 2.37494 6.22785 0
1 3.31572 6.20013 0
1 4.27984 6.11012 0
1 5.22359 6.22464 0
1 6.18454 6.21905 0
49
 Atoms. Timestep: 20
1 0.398173 0.488089 0
1 1.35256 0.371131 0
1 2.3105 0.466411 0
1 3.25019 0.424796 0
1 4.21563 0.355357 0
1 5.21362 0.480638 0
1 6.15992 0.458573 0
1 0.409957 1.47544 0
1 1.37548 1.32671 0
1 2.35141 1.37463 0
1 3.32133 1.35658 0
1 4.29065 1.33112 0
1 5.26162 1.41041 0
1 6.17208 1.39525 0
1 0.361318 2.43442 0
1 1.31666 2.31956 0
1 2.28049 2.32933 0
1 3.2417 2.31931 0
1 4.18375 2.32553 0
1 5.1574 2.3484 0
1 6.11021 2.33335 0
1 0.423611 3.39375 0
1 1.32644 3.27791 0
1 2.3134 3.29707 0
1 3.31864 3.33222 0
1 4.30321 3.25432 0
1 5.28145 3.33213 0
1 6.21944 3.282 0
1 0.358568 4.35715 0
1 1.312 4.21106 0
1 2.31796 4.28694 0
1 3.30096 4.30602 0
1 4.26289 4.17832 0
1 5.20967 4.32918 0
1 6.11153 4.26793 0
1 0.596111 5.2721 0
1 1.51731 5.18235 0
1 2.44677 5.26967 0
1 3.40571 5.27105 0
1 4.40572 5.15844 0
1 5.39202 5.26812 0
1 6.31681 5.24123 0
1 0.447612 6.24908 0
1 1.36898 6.16543 0
1 2.38436 6.20539 0
1 3.35728 6.17759 0
1 4.29153 6.15495 0
1 5.2593 6.15673 0
1 6.21075 6.19153 0
49
 Atoms. Timestep: 30
1 0.370349 0.549163 0
1 1.29052 0.33954 0
1 2.2258 0.436286 0
1 3.21474 0.449126 0
1 4.22233 0.356482 0
1 5.16406 0.466562 0
1 6.12689 0.397377 0
1 0.474457 1.47873 0
1 1.38403 1.29263 0
1 2.32719 1.42879 0
1 3.34126 1.40314 0
1 4.3118 1.28254 0
1 5.25623 1.44476 0
1 6.25026 1.35204 0
1 0.301659 2.48811 0
1 1.22154 2.24642 0
1 2.17093 2.35957 0
1 3.17475 2.33938 0
1 4.16481 2.20784 0
1 5.1114 2.38896 0
1 6.07038 2.30008 0
1 0.486342 3.48927 0
1 1.43765 3.20119 0
1 2.35458 3.33873 0
1 3.31004 3.3006 0
1 4.2936 3.17343 0
1 5.21981 3.34793 0
1 6.22432 3.27481 0
1 0.361359 4.46891 0
1 1.29735 4.21865 0
1 2.24291 4.32411 0
1 3.2205 4.31718 0
1 4.1789 4.18209 0
1 5.09182 4.37641 0
1 6.1059 4.28208 0
1 0.670589 5.4055 0
1 1.60873 5.13013 0
1 2.56571 5.24428 0
1 3.55953 5.21208 0
1 4.51225 5.14451 0
1 5.47546 5.25216 0
1 6.45519 5.23455 0
1 0.442544 6.30621 0
1 1.41519 6.04613 0
1 2.34881 6.20379 0
1 3.34674 6.21878 0
1 4.33957 6.06555 0
1 5.25647 6.25829 0
1 6.19743 6.16981 0
49
 Atoms. Timestep: 40
1 0.289706 0.649878 0
1 1.21673 0.204323 0
1 2.17938 0.467951 0
1 3.17228 0.481339 0
1 4.13061 0.238573 0
1 5.08877 0.552015 0
1 6.06958 0.337511 0
1 0.493514 1.60842 0
1 1.46542 1.23696 0
1 2.41397 1.43983 0
1 3.36637 1.45356 0
1 4.35032 1.20205 0
1 5.30049 1.4758 0
1 6.30016 1.30473 0
1 0.222721 2.59105 0
1 1.15164 2.18765 0
1 2.09404 2.47008 0
1 3.05734 2.39864 0
1 4.07508 2.13615 0
1 5.01477 2.49068 0
1 5.99951 2.26588 0
1 0.567168 3.57295 0
1 1.46037 3.13863 0
1 2.4479 3.40421 0
1 3.37428 3.32542 0
1 4.25027 3.10694 0
1 5.26083 3.43995 0
1 6.20374 3.27478 0
1 0.391338 4.50214 0
1 1.25159 4.15129 0
1 2.19778 4.3117 0
1 3.09633 4.26375 0
1 4.03458 4.15573 0
1 5.07395 4.29541 0
1 6.07448 4.27927 0
1 0.778592 5.43586 0
1 1.69194 5.05606 0
1 2.77059 5.22462 0
1 3.70473 5.22564 0
1 4.6273 5.10232 0
1 5.58303 5.31016 0
1 6.52214 5.24012 0
1 0.429504 6.40414 0
1 1.46118 6.02435 0
1 2.38521 6.19352 0
1 3.34249 6.19134 0
1 4.28966 6.01245 0
1 5.25827 6.27863 0
1 6.21303 6.08023 0
49
 Atoms. Timestep: 50
1 0.306349 0.714017 0
1 1.17714 0.256866 0
1 2.14717 0.492398 0
1 3.1052 0.517841 0
1 4.01374 0.160574 0
1 5.06745 0.565507 0
1 5.96685 0.311439 0
1 0.418612 1.67187 0
1 1.47915 1.14508 0
1 2.48528 1.50022 0
1 3.42955 1.43761 0
1 4.31573 1.12451 0
1 5.33885 1.57381 0
1 6.20937 1.2841 0
1 0.206231 2.64423 0
1 1.19792 2.27103 0
1 2.09923 2.45271 0
1 3.00413 2.44225 0
1 3.98703 2.1739 0
1 4.9868 2.45679 0
1 5.93139 2.27211 0
1 0.473713 3.49743 0
1 1.40915 3.20519 0
1 2.45535 3.37334 0
1 3.4254 3.36563 0
1 4.33367 3.11802 0
1 5.30557 3.34457 0
1 6.24238 3.30312 0
1 0.413787 4.46406 0
1 1.2883 4.11414 0
1 2.1604 4.27923 0
1 3.08238 4.2694 0
1 4.02795 4.13376 0
1 5.0891 4.29927 0
1 6.05799 4.29091 0
1 0.779952 5.37234 0
1 1.73588 5.1382 0
1 2.82423 5.2324 0
1 3.78829 5.16531 0
1 4.73432 5.14665 0
1 5.62054 5.32302 0
1 6.57714 5.17376 0
1 0.381552 6.37664 0
1 1.54358 6.0448 0
1 2.45857 6.18298 0
1 3.37252 6.14648 0
1 4.3202 5.96538 0
1 5.22186 6.27531 0
1 6.19773 6.12446 0
49
 Atoms. Timestep: 60
1 0.308756 0.673305 0
1 1.16655 0.28501 0
1 2.11874 0.4301 0
1 3.05514 0.501688 0
1 3.98384 0.211438 0
1 5.01445 0.521741 0
1 5.98208 0.360236 0
1 0.375603 1.6353 0
1 1.41375 1.27334 0
1 2.44341 1.53885 0
1 3.39005 1.40246 0
1 4.30609 1.14546 0
1 5.17546 1.43535 0
1 6.16559 1.27976 0
1 0.202692 2.56537 0
1 1.1276 2.25714 0
1 2.08302 2.3941 0
1 3.10849 2.45169 0
1 4.01801 2.29454 0
1 4.94435 2.36923 0
1 6.0091 2.40458 0
1 0.458619 3.48418 0
1 1.41851 3.21141 0
1 2.43779 3.28271 0
1 3.42781 3.35001 0
1 4.39757 3.2396 0
1 5.3229 3.26277 0
1 6.24689 3.35962 0
1 0.337277 4.41401 0
1 1.26057 4.18164 0
1 2.21188 4.31616 0
1 3.17749 4.32562 0
1 4.1737 4.15278 0
1 5.09959 4.22435 0
1 6.09278 4.31894 0
1 0.828946 5.36288 0
1 1.81096 5.18107 0
1 2.76527 5.2572 0
1 3.77837 5.02853 0
1 4.75676 5.14265 0
1 5.67845 5.30063 0
1 6.56533 5.19636 0
1 0.414466 6.31921 0
1 1.48862 6.14276 0
1 2.48373 6.22716 0
1 3.43872 6.06251 0
1 4.34045 6.01479 0
1 5.22998 6.29199 0
1 6.15847 6.11246 0
49
 Atoms. Timestep: 70
1 0.194301 0.551724 0
1 1.11453 0.394994 0
1 2.04595 0.430978 0
1 3.03816 0.427186 0
1 3.99387 0.281687 0
1 4.90519 0.38466 0
1 6.03256 0.366079 0
1 0.389315 1.49753 0
1 1.36792 1.4038 0
1 2.35628 1.43483 0
1 3.3262 1.47087 0
1 4.20659 1.21942 0
1 5.21915 1.34826 0
1 6.12953 1.38768 0
1 0.21178 2.59013 0
1 1.06355 2.2626 0
1 2.03345 2.3719 0
1 3.06 2.3988 0
1 4.02759 2.34522 0
1 4.98804 2.34444 0
1 5.93705 2.43175 0
1 0.600872 3.4781 0
1 1.47913 3.16205 0
1 2.43787 3.29045 0
1 3.44368 3.37049 0
1 4.41009 3.26809 0
1 5.37022 3.20445 0
1 6.29224 3.41405 0
1 0.296345 4.40759 0
1 1.3018 4.30711 0
1 2.28757 4.28324 0
1 3.22979 4.26716 0
1 4.22038 4.215 0
1 5.19764 4.14482 0
1 6.04712 4.37299 0
1 0.893775 5.33513 0
1 1.81514 5.24193 0
1 2.76956 5.26689 0
1 3.78332 5.10376 0
1 4.7016 5.0544 0
1 5.62135 5.24621 0
1 6.66191 5.34384 0
1 0.483537 6.26274 0
1 1.45525 6.13713 0
1 2.4742 6.26906 0
1 3.37966 5.96802 0
1 4.37302 6.05474 0
1 5.30557 6.26564 0
1 6.22105 6.11506 0
49
 Atoms. Timestep: 80
1 0.113306 0.393566 0
1 1.05236 0.514586 0
1 2.0127 0.463979 0
1 2.9845 0.381197 0
1 3.90012 0.265638 0
1 4.8871 0.337158 0
1 5.80288 0.381574 0
1 0.4349 1.4915 0
1 1.38474 1.37288 0
1 2.30661 1.3115 0
1 3.21597 1.50297 0
1 4.20257 1.33434 0
1 5.20168 1.30441 0
1 6.20394 1.51091 0
1 0.0928892 2.5647 0
1 1.04404 2.34603 0
1 2.01884 2.30042 0
1 2.92 2.41625 0
1 3.96924 2.334 0
1 4.9804 2.22328 0
1 5.93871 2.3732 0
1 0.712339 3.5437 0
1 1.576 3.18476 0
1 2.51293 3.31996 0
1 3.47029 3.26999 0
1 4.43542 3.23763 0
1 5.42639 3.18812 0
1 6.43223 3.49039 0
1 0.361236 4.41048 0
1 1.32173 4.40508 0
1 2.29096 4.27476 0
1 3.2557 4.27513 0
1 4.17125 4.22922 0
1 5.13369 4.08959 0
1 6.13653 4.46249 0
1 0.931894 5.25122 0
1 1.88167 5.23948 0
1 2.79767 5.1703 0
1 3.74634 5.19755 0
1 4.7118 5.03243 0
1 5.63244 5.26283 0
1 0.000390601 5.33772 0
1 0.546917 6.22866 0
1 1.48743 6.18686 0
1 2.41213 6.25917 0
1 3.37152 6.09128 0
1 4.38752 6.04722 0
1 5.35569 6.13352 0
1 6.3189 6.25104 0
49
 Atoms. Timestep: 90
1 0.00370341 0.432498 0
1 0.967071 0.501178 0
1 1.91518 0.351143 0
1 2.86489 0.418947 0
1 3.87171 0.299796 0
1 4.72151 0.288566 0
1 5.72162 0.474435 0
1 0.494388 1.4827 0
1 1.4105 1.44047 0
1 2.33054 1.31288 0
1 3.27232 1.47778 0
1 4.23918 1.40138 0
1 5.19126 1.20361 0
1 6.25624 1.43656 0
1 0.124295 2.58084 0
1 1.02376 2.41865 0
1 1.93631 2.182 0
1 2.90655 2.45371 0
1 3.87802 2.3023 0
1 4.8467 2.17103 0
1 5.82434 2.33604 0
1 0.774382 3.51349 0
1 1.68997 3.24227 0
1 2.61256 3.37972 0
1 3.54859 3.18385 0
1 4.52167 3.2008 0
1 5.49483 3.19907 0
1 6.51802 3.56819 0
1 0.428053 4.46395 0
1 1.3661 4.35473 0
1 2.26873 4.27961 0
1 3.20968 4.25996 0
1 4.16112 4.16052 0
1 5.1044 4.11648 0
1 6.16106 4.44459 0
1 0.957354 5.28703 0
1 1.92328 5.26819 0
1 2.85501 5.12099 0
1 3.79592 5.2092 0
1 4.75893 5.07898 0
1 5.72464 5.25304 0
1 6.62911 5.32952 0
1 0.595177 6.17697 0
1 1.50486 6.25695 0
1 2.43854 6.17006 0
1 3.35606 6.26521 0
1 4.35842 6.02985 0
1 5.3269 6.15034 0
1 6.31122 6.2646 0
49
 Atoms. Timestep: 100
1 6.68685 0.595936 0
1 0.8729 0.458122 0
1 1.86019 0.409703 0
1 2.8032 0.484456 0
1 3.6889 0.54354 0
1 4.76163 0.259406 0
1 5.78024 0.412683 0
1 0.461385 1.49408 0
1 1.41319 1.38651 0
1 2.38251 1.27333 0
1 3.35147 1.42251 0
1 4.28124 1.32922 0
1 5.19305 1.24625 0
1 6.18304 1.33215 0
1 0.0370342 2.60541 0
1 1.04467 2.49188 0
1 1.98689 2.24824 0
1 2.87197 2.39766 0
1 3.81563 2.26553 0
1 4.76891 2.19321 0
1 5.74723 2.1996 0
1 0.806757 3.43936 0
1 1.77366 3.26948 0
1 2.72582 3.42076 0
1 3.67008 3.25294 0
1 4.62543 3.14512 0
1 5.60095 3.30966 0
1 6.5578 3.53459 0
1 0.412488 4.47368 0
1 1.35199 4.25946 0
1 2.28539 4.32504 0
1 3.25421 4.16198 0
1 4.17025 4.10438 0
1 5.18345 4.18012 0
1 6.0903 4.36694 0
1 0.962732 5.3432 0
1 1.90159 5.29949 0
1 2.8911 5.19718 0
1 3.85801 5.19067 0
1 4.80143 5.11164 0
1 5.69131 5.29566 0
1 6.70994 5.35078 0
1 0.458628 6.20614 0
1 1.47471 6.16997 0
1 2.45956 6.04429 0
1 3.39723 6.21631 0
1 4.30904 6.04921 0
1 5.28154 6.23133 0
1 6.20534 6.19589 0
49
 Atoms. Timestep: 110
1 -0.00257235 0.586785 0
1 0.930771 0.389372 0
1 1.81248 0.471972 0
1 2.7385 0.333661 0
1 3.73038 0.564666 0
1 4.70064 0.407045 0
1 5.70465 0.315882 0
1 0.366437 1.56572 0
1 1.39504 1.31464 0
1 2.34964 1.41763 0
1 3.25458 1.47121 0
1 4.3397 1.27735 0
1 5.23357 1.28404 0
1 6.14493 1.34581 0
1 6.6192 2.51153 0
1 1.0342 2.47663 0
1 1.94351 2.31186 0
1 2.92293 2.36884 0
1 3.83881 2.26808 0
1 4.76685 2.18457 0
1 5.69629 2.19291 0
1 0.817369 3.3938 0
1 1.81898 3.29181 0
1 2.77053 3.313 0
1 3.76154 3.28912 0
1 4.75724 3.16034 0
1 5.71698 3.3345 0
1 6.61825 3.52251 0
1 0.336258 4.40347 0
1 1.33851 4.20435 0
1 2.33011 4.39498 0
1 3.31977 4.25068 0
1 4.31062 4.10409 0
1 5.1625 4.24721 0
1 6.1085 4.39837 0
1 0.939918 5.29534 0
1 1.89242 5.19144 0
1 2.9247 5.20807 0
1 3.84554 5.10106 0
1 4.78 5.12834 0
1 5.76015 5.34718 0
1 0.000632366 5.33431 0
1 0.377679 6.34188 0
1 1.41053 6.15898 0
1 2.42729 6.09812 0
1 3.40066 6.18137 0
1 4.34955 6.09055 0
1 5.22432 6.16279 0
1 6.1736 6.18683 0
49
 Atoms. Timestep: 120
1 6.66226 0.491659 0
1 0.948049 0.422349 0
1 1.91483 0.477192 0
1 2.82898 0.233409 0
1 3.70702 0.359676 0
1 4.67265 0.458392 0
1 5.63528 0.346082 0
1 0.407613 1.65047 0
1 1.25574 1.35635 0
1 2.24574 1.48802 0
1 3.30089 1.47308 0
1 4.20556 1.39533 0
1 5.2783 1.27148 0
1 6.2123 1.35349 0
1 6.58607 2.4149 0
1 0.903594 2.35917 0
1 1.91075 2.37092 0
1 2.88807 2.3613 0
1 3.88149 2.30423 0
1 4.80066 2.1536 0
1 5.67556 2.33119 0
1 0.886482 3.37112 0
1 1.81811 3.34438 0
1 2.83219 3.31528 0
1 3.82229 3.26229 0
1 4.83146 3.22673 0
1 5.75328 3.31291 0
1 6.64156 3.52327 0
1 0.424477 4.35285 0
1 1.3554 4.25186 0
1 2.41973 4.27448 0
1 3.33597 4.29184 0
1 4.2666 4.13057 0
1 5.29055 4.26523 0
1 6.18397 4.44653 0
1 0.91641 5.19192 0
1 1.87954 5.1864 0
1 2.85912 5.24159 0
1 3.87064 5.06119 0
1 4.81368 5.19846 0
1 5.72712 5.27255 0
1 6.68763 5.33864 0
1 0.392974 6.33287 0
1 1.36419 6.21411 0
1 2.30852 6.12624 0
1 3.32373 6.15706 0
1 4.24971 6.10345 0
1 5.24616 6.10354 0
1 6.18821 6.22506 0
49
 Atoms. Timestep: 130
1 6.613 0.403087 0
1 0.948448 0.514328 0
1 1.93763 0.505298 0
1 2.82634 0.297578 0
1 3.82276 0.230171 0
1 4.68916 0.451208 0
1 5.6366 0.393314 0
1 0.332703 1.48921 0
1 1.31877 1.40547 0
1 2.23578 1.444 0
1 3.16559 1.35321 0
1 4.20164 1.37985 0
1 5.23745 1.29154 0
1 6.15795 1.40216 0
1 6.66817 2.47536 0
1 0.907157 2.42621 0
1 1.83462 2.46809 0
1 2.82835 2.33944 0
1 3.80266 2.34193 0
1 4.77271 2.16297 0
1 5.71004 2.41014 0
1 0.918043 3.3428 0
1 1.90289 3.41655 0
1 2.88673 3.38343 0
1 3.84268 3.29161 0
1 4.7843 3.26395 0
1 5.75939 3.34411 0
1 6.71337 3.46659 0
1 0.542361 4.31333 0
1 1.4987 4.33669 0
1 2.36157 4.16875 0
1 3.34437 4.22518 0
1 4.32975 4.18631 0
1 5.27643 4.23565 0
1 6.33588 4.42946 0
1 0.945579 5.19124 0
1 1.87488 5.19258 0
1 2.81403 5.23462 0
1 3.85041 5.15272 0
1 4.76667 5.23413 0
1 5.73978 5.20408 0
1 6.69763 5.36028 0
1 0.434414 6.18097 0
1 1.32708 6.23878 0
1 2.22816 6.08186 0
1 3.21273 6.041 0
1 4.22478 6.10759 0
1 5.18686 6.13579 0
1 6.16412 6.25008 0
49
 Atoms. Timestep: 140
1 6.65366 0.389696 0
1 0.862862 0.522114 0
1 1.83026 0.512269 0
1 2.85241 0.347424 0
1 3.76735 0.214955 0
1 4.76672 0.432303 0
1 5.71468 0.421871 0
1 0.396223 1.32022 0
1 1.33159 1.51992 0
1 2.2517 1.46802 0
1 3.17016 1.20022 0
1 4.18343 1.27795 0
1 5.08553 1.35136 0
1 6.0243 1.43713 0
1 6.69946 2.51332 0
1 0.908158 2.35942 0
1 1.84783 2.44273 0
1 2.75255 2.31586 0
1 3.71893 2.28793 0
1 4.70868 2.25571 0
1 5.72966 2.36623 0
1 1.03247 3.40559 0
1 1.93788 3.39943 0
1 2.89791 3.29877 0
1 3.84718 3.39479 0
1 4.79543 3.25827 0
1 5.7623 3.45152 0
1 0.0294101 3.45416 0
1 0.607132 4.23698 0
1 1.51054 4.34525 0
1 2.49098 4.28377 0
1 3.41376 4.24401 0
1 4.36558 4.28007 0
1 5.33287 4.26432 0
1 6.33994 4.34137 0
1 0.933335 5.30776 0
1 1.89576 5.23505 0
1 2.82595 5.05434 0
1 3.69763 5.21884 0
1 4.75755 5.20405 0
1 5.73893 5.18382 0
1 6.66465 5.2822 0
1 0.380844 6.16285 0
1 1.3547 6.29412 0
1 2.31397 6.12473 0
1 3.23193 6.06491 0
1 4.22005 6.02837 0
1 5.15995 6.22275 0
1 6.10816 6.19594 0
49
 Atoms. Timestep: 150
1 6.66115 0.380289 0
1 0.899786 0.434517 0
1 1.80646 0.525485 0
1 2.72496 0.297436 0
1 3.78622 0.27108 0
1 4.72106 0.39171 0
1 5.7438 0.481783 0
1 0.312342 1.3014 0
1 1.29719 1.49198 0
1 2.28759 1.45989 0
1 3.19646 1.16019 0
1 4.15756 1.19191 0
1 5.04671 1.42471 0
1 6.06571 1.4325 0
1 6.61689 2.44176 0
1 0.843269 2.37677 0
1 1.81495 2.38112 0
1 2.78512 2.26704 0
1 3.6927 2.22585 0
1 4.64447 2.36139 0
1 5.6646 2.37067 0
1 1.05689 3.36363 0
1 2.0043 3.38392 0
1 2.93781 3.19724 0
1 3.89804 3.39711 0
1 4.86928 3.281 0
1 5.81547 3.40942 0
1 0.0690999 3.42751 0
1 0.527385 4.32185 0
1 1.55588 4.33138 0
1 2.49679 4.14352 0
1 3.46301 4.30725 0
1 4.41558 4.33825 0
1 5.34516 4.36211 0
1 6.26891 4.27969 0
1 0.906744 5.40287 0
1 1.88321 5.32579 0
1 2.8019 5.1774 0
1 3.8191 5.19715 0
1 4.75057 5.18877 0
1 5.6804 5.24217 0
1 6.6773 5.15358 0
1 0.371312 6.24184 0
1 1.36866 6.33406 0
1 2.33452 6.20391 0
1 3.31204 6.12373 0
1 4.24781 6.02691 0
1 5.15307 6.26256 0
1 6.10364 6.10055 0
49
 Atoms. Timestep: 160
1 6.60119 0.400938 0
1 0.874814 0.429209 0
1 1.83802 0.579906 0
1 2.76328 0.328377 0
1 3.72911 0.332463 0
1 4.73408 0.389551 0
1 5.62203 0.531406 0
1 0.302229 1.36875 0
1 1.27675 1.35503 0
1 2.19775 1.40424 0
1 3.14471 1.17805 0
1 4.20254 1.21079 0
1 5.16617 1.51685 0
1 6.0599 1.44087 0
1 6.48676 2.33066 0
1 0.760574 2.43449 0
1 1.75399 2.32483 0
1 2.76071 2.19795 0
1 3.74092 2.13321 0
1 4.62015 2.40695 0
1 5.51533 2.39726 0
1 1.03835 3.35003 0
1 1.97573 3.23584 0
1 3.06605 3.15748 0
1 3.98024 3.34838 0
1 4.92873 3.40039 0
1 5.88263 3.3075 0
1 0.132381 3.34792 0
1 0.562948 4.41423 0
1 1.51157 4.34424 0
1 2.55052 4.1386 0
1 3.45824 4.32735 0
1 4.37815 4.22536 0
1 5.31625 4.34871 0
1 6.24868 4.23791 0
1 0.884596 5.4346 0
1 1.79623 5.3632 0
1 2.81208 5.29142 0
1 3.86275 5.14904 0
1 4.8185 5.29543 0
1 5.72351 5.30486 0
1 6.66305 5.14973 0
1 0.401764 6.24679 0
1 1.38556 6.27109 0
1 2.31019 6.1502 0
1 3.30384 6.14345 0
1 4.28854 6.16715 0
1 5.26197 6.23068 0
1 6.20885 6.1213 0
49
 Atoms. Timestep: 170
1 6.52698 0.468617 0
1 0.79657 0.462247 0
1 1.79547 0.433275 0
1 2.78082 0.293049 0
1 3.72799 0.395464 0
1 4.65765 0.370951 0
1 5.61178 0.583932 0
1 0.312403 1.45509 0
1 1.22403 1.31592 0
1 2.16738 1.42581 0
1 3.24401 1.28392 0
1 4.19495 1.28908 0
1 5.09199 1.53822 0
1 6.11713 1.39439 0
1 6.42339 2.28498 0
1 0.680235 2.40128 0
1 1.6504 2.21504 0
1 2.72353 2.18477 0
1 3.66729 2.06554 0
1 4.52858 2.4902 0
1 5.50494 2.44734 0
1 1.12201 3.44308 0
1 2.10337 3.17771 0
1 3.06816 3.13963 0
1 4.04562 3.23219 0
1 5.02079 3.46337 0
1 5.93387 3.23591 0
1 0.149653 3.27787 0
1 0.583601 4.40257 0
1 1.54732 4.34128 0
1 2.41283 4.10724 0
1 3.39554 4.25522 0
1 4.37721 4.19431 0
1 5.31859 4.37387 0
1 6.33993 4.18914 0
1 0.830904 5.34589 0
1 1.81051 5.25624 0
1 2.8506 5.27418 0
1 3.84404 5.24958 0
1 4.80321 5.37834 0
1 5.75656 5.25021 0
1 6.65983 5.235 0
1 0.500311 6.28668 0
1 1.40406 6.26253 0
1 2.36097 6.15536 0
1 3.321 6.14564 0
1 4.26742 6.26208 0
1 5.36255 6.22329 0
1 6.2849 6.23718 0
49
 Atoms. Timestep: 180
1 6.54838 0.540343 0
1 0.761883 0.531845 0
1 1.79315 0.36296 0
1 2.73594 0.365349 0
1 3.71147 0.439638 0
1 4.67771 0.46617 0
1 5.5429 0.565809 0
1 0.313369 1.51986 0
1 1.28408 1.31137 0
1 2.2591 1.27489 0
1 3.14905 1.24059 0
1 4.15398 1.28833 0
1 5.1002 1.54069 0
1 6.02977 1.35809 0
1 6.42633 2.35465 0
1 0.671128 2.3909 0
1 1.57054 2.24056 0
1 2.63479 2.2659 0
1 3.61643 2.2469 0
1 4.54483 2.40044 0
1 5.44054 2.39936 0
1 1.21913 3.47672 0
1 2.14557 3.07711 0
1 3.09159 3.15227 0
1 3.97729 3.28408 0
1 5.04554 3.42063 0
1 6.0165 3.29516 0
1 0.288066 3.2458 0
1 0.565242 4.33302 0
1 1.48524 4.36268 0
1 2.40914 4.06467 0
1 3.30777 4.18083 0
1 4.37078 4.26892 0
1 5.37077 4.39792 0
1 6.36486 4.16244 0
1 0.992588 5.28153 0
1 1.92922 5.21271 0
1 2.85308 5.13755 0
1 3.80851 5.31955 0
1 4.75449 5.40467 0
1 5.69165 5.27825 0
1 6.66161 5.28823 0
1 0.524196 6.26407 0
1 1.45932 6.15827 0
1 2.39651 6.10573 0
1 3.33331 6.16758 0
1 4.29595 6.20487 0
1 5.29793 6.26298 0
1 6.28149 6.28179 0
49
 Atoms. Timestep: 190
1 6.5407 0.572324 0
1 0.81286 0.529531 0
1 1.72275 0.355004 0
1 2.72391 0.365313 0
1 3.65641 0.37801 0
1 4.57827 0.504968 0
1 5.62993 0.463599 0
1 0.328017 1.47227 0
1 1.3291 1.36136 0
1 2.2122 1.18312 0
1 3.18606 1.30103 0
1 4.06974 1.39735 0
1 5.04841 1.45597 0
1 6.04378 1.49556 0
1 6.43431 2.40262 0
1 0.699289 2.40967 0
1 1.64691 2.25844 0
1 2.55733 2.20342 0
1 3.52332 2.39684 0
1 4.50811 2.29629 0
1 5.51085 2.44999 0
1 1.28285 3.40285 0
1 2.09537 3.07044 0
1 3.03155 3.20355 0
1 4.06807 3.41329 0
1 4.97815 3.35782 0
1 6.07269 3.2797 0
1 0.345483 3.32991 0
1 0.537937 4.27235 0
1 1.49908 4.43493 0
1 2.32768 3.99851 0
1 3.42714 4.14195 0
1 4.33879 4.37738 0
1 5.37027 4.31505 0
1 6.29366 4.24554 0
1 1.01252 5.20956 0
1 2.02614 5.22286 0
1 2.93917 4.95157 0
1 3.78096 5.29144 0
1 4.75196 5.28386 0
1 5.73207 5.43 0
1 6.72024 5.32216 0
1 0.502692 6.19946 0
1 1.47636 6.0354 0
1 2.43312 6.04691 0
1 3.36195 6.23119 0
1 4.30367 6.26567 0
1 5.22656 6.31909 0
1 6.2045 6.28957 0
49
 Atoms. Timestep: 200
1 6.58911 0.588788 0
1 0.780163 0.455833 0
1 1.71288 0.251469 0
1 2.66106 0.275783 0
1 3.64981 0.461682 0
1 4.61834 0.547797 0
1 5.62041 0.473023 0
1 0.331243 1.42669 0
1 1.22399 1.3981 0
1 2.21176 1.18846 0
1 3.13904 1.37391 0
1 4.0666 1.4866 0
1 5.04034 1.3542 0
1 6.08152 1.59132 0
1 6.56741 2.41069 0
1 0.772598 2.43073 0
1 1.65753 2.25037 0
1 2.60828 2.07437 0
1 3.50026 2.45667 0
1 4.5032 2.33081 0
1 5.45473 2.4655 0
1 1.22356 3.42959 0
1 2.14357 3.03019 0
1 3.06036 3.318 0
1 4.09025 3.41881 0
1 5.056 3.28998 0
1 6.01559 3.31895 0
1 0.250662 3.37049 0
1 0.547452 4.2974 0
1 1.504 4.35737 0
1 2.38576 4.00001 0
1 3.47511 4.08743 0
1 4.34986 4.43734 0
1 5.26704 4.26147 0
1 6.26968 4.40261 0
1 0.924075 5.17942 0
1 2.03438 5.17113 0
1 2.91441 4.80404 0
1 3.84469 5.30486 0
1 4.84691 5.23623 0
1 5.76616 5.47819 0
1 0.0158519 5.30378 0
1 0.4651 6.19123 0
1 1.48438 6.04985 0
1 2.45345 6.0896 0
1 3.34328 6.14555 0
1 4.27492 6.28877 0
1 5.19562 6.29153 0
1 6.20228 6.34805 0
49
 Atoms. Timestep: 210
1 6.51687 0.596627 0
1 0.8137 0.389932 0
1 1.74843 0.224356 0
1 2.71666 0.304265 0
1 3.65316 0.534963 0
1 4.63898 0.474176 0
1 5.58453 0.556062 0
1 0.237237 1.47943 0
1 1.23026 1.32201 0
1 2.13073 1.15576 0
1 3.11305 1.27713 0
1 4.1005 1.49401 0
1 5.16965 1.41099 0
1 6.03206 1.58261 0
1 6.52974 2.46568 0
1 0.82327 2.49845 0
1 1.70092 2.14984 0
1 2.62477 2.15373 0
1 3.56831 2.43277 0
1 4.52469 2.47886 0
1 5.52046 2.33543 0
1 1.19303 3.39023 0
1 2.16212 3.0538 0
1 3.10624 3.24443 0
1 4.13324 3.27935 0
1 5.04418 3.29226 0
1 5.94961 3.41159 0
1 0.17567 3.35608 0
1 0.504912 4.33298 0
1 1.50656 4.29784 0
1 2.45484 4.00733 0
1 3.47222 4.17492 0
1 4.36589 4.41518 0
1 5.27626 4.23353 0
1 6.20291 4.49437 0
1 0.995567 5.21112 0
1 1.96049 5.15276 0
1 2.87927 4.91423 0
1 3.89842 5.292 0
1 4.90229 5.30852 0
1 5.81335 5.44691 0
1 6.70109 5.30852 0
1 0.471352 6.19917 0
1 1.38813 6.0101 0
1 2.32907 6.02852 0
1 3.32572 6.0671 0
1 4.24506 6.29207 0
1 5.23643 6.24245 0
1 6.23099 6.42024 0
49
 Atoms. Timestep: 220
1 6.57096 0.672335 0
1 0.786844 0.374706 0
1 1.8093 0.221874 0
1 2.80073 0.313056 0
1 3.74236 0.464811 0
1 4.64918 0.443939 0
1 5.57153 0.572354 0
1 0.340297 1.59645 0
1 1.13405 1.20961 0
1 2.11081 1.12663 0
1 3.02022 1.29179 0
1 4.18383 1.50659 0
1 5.05667 1.48068 0
1 6.06146 1.47095 0
1 6.46166 2.48691 0
1 0.742907 2.49438 0
1 1.69578 2.02675 0
1 2.73458 2.24072 0
1 3.67663 2.27741 0
1 4.62588 2.38688 0
1 5.54613 2.36083 0
1 1.19122 3.35387 0
1 2.12948 3.11434 0
1 3.10508 3.18331 0
1 3.98487 3.34307 0
1 5.00004 3.29384 0
1 5.96732 3.51638 0
1 0.235919 3.39891 0
1 0.421023 4.33053 0
1 1.51168 4.25114 0
1 2.48319 4.02375 0
1 3.40348 4.1995 0
1 4.42541 4.40509 0
1 5.32253 4.23162 0
1 6.21279 4.50295 0
1 0.994162 5.0951 0
1 1.89782 5.13381 0
1 2.91821 5.17079 0
1 3.8893 5.23552 0
1 4.81702 5.33194 0
1 5.83893 5.43841 0
1 0.134306 5.33257 0
1 0.413327 6.2099 0
1 1.34761 6.09245 0
1 2.30091 6.01773 0
1 3.22866 6.0512 0
1 4.22891 6.25351 0
1 5.26854 6.27777 0
1 6.20115 6.38604 0
49
 Atoms. Timestep: 230
1 6.65582 0.684603 0
1 0.811529 0.297612 0
1 1.8363 0.214227 0
1 2.79821 0.274 0
1 3.73831 0.419177 0
1 4.71566 0.463676 0
1 5.67606 0.556047 0
1 0.309788 1.67193 0
1 1.18032 1.1445 0
1 2.10618 1.13226 0
1 3.13137 1.33907 0
1 4.04461 1.29518 0
1 5.13236 1.47118 0
1 6.0462 1.44492 0
1 6.49316 2.52519 0
1 0.755729 2.52931 0
1 1.70254 2.02843 0
1 2.68278 2.28038 0
1 3.68856 2.28157 0
1 4.63226 2.29697 0
1 5.57264 2.45449 0
1 1.1851 3.31529 0
1 2.06915 3.06938 0
1 3.00851 3.15733 0
1 3.9988 3.45268 0
1 4.95984 3.30677 0
1 6.02584 3.53886 0
1 0.249916 3.37027 0
1 0.481505 4.28891 0
1 1.50915 4.19531 0
1 2.45019 4.10546 0
1 3.42245 4.26536 0
1 4.33625 4.34432 0
1 5.32497 4.2638 0
1 6.23964 4.54114 0
1 1.04292 5.02763 0
1 2.0202 5.1083 0
1 2.87211 5.26083 0
1 3.8036 5.19772 0
1 4.85718 5.36702 0
1 5.81386 5.41914 0
1 0.0424836 5.31489 0
1 0.344039 6.21038 0
1 1.3014 6.10744 0
1 2.28462 6.07924 0
1 3.29601 6.19251 0
1 4.21998 6.16226 0
1 5.17903 6.32708 0
1 6.14556 6.40066 0
49
 Atoms. Timestep: 240
1 6.73867 0.658048 0
1 0.902942 0.221489 0
1 1.78695 0.253057 0
1 2.71849 0.348713 0
1 3.7417 0.305424 0
1 4.73978 0.514118 0
1 5.75284 0.565935 0
1 0.304738 1.60531 0
1 1.18078 1.20639 0
1 2.27316 1.18608 0
1 3.14586 1.38382 0
1 4.13411 1.18906 0
1 5.0753 1.39542 0
1 6.06991 1.55051 0
1 6.54408 2.50015 0
1 0.826703 2.43325 0
1 1.65783 2.09702 0
1 2.59704 2.17001 0
1 3.57179 2.38279 0
1 4.57327 2.27108 0
1 5.56413 2.54776 0
1 1.18715 3.40114 0
1 2.06037 2.99575 0
1 3.03931 3.27414 0
1 3.97849 3.43563 0
1 4.96811 3.31131 0
1 5.9843 3.50829 0
1 0.230297 3.34923 0
1 0.572093 4.22786 0
1 1.51816 4.22207 0
1 2.45394 4.16302 0
1 3.34022 4.33467 0
1 4.37462 4.36097 0
1 5.27332 4.33161 0
1 6.21818 4.47701 0
1 1.02951 5.15804 0
1 1.95265 5.03212 0
1 2.93571 5.29286 0
1 3.88296 5.20263 0
1 4.80922 5.31523 0
1 5.75341 5.45248 0
1 0.0710828 5.2435 0
1 0.303531 6.17677 0
1 1.27342 6.01517 0
1 2.29751 6.09832 0
1 3.31136 6.22866 0
1 4.26486 6.08394 0
1 5.13789 6.33587 0
1 6.07297 6.38095 0
49
 Atoms. Timestep: 250
1 0.0480297 0.618723 0
1 0.873385 0.203786 0
1 1.81649 0.331374 0
1 2.79596 0.413987 0
1 3.80548 0.306597 0
1 4.78596 0.43063 0
1 5.75784 0.670799 0
1 0.35697 1.53035 0
1 1.27125 1.21834 0
1 2.20663 1.25997 0
1 3.30125 1.40354 0
1 4.17235 1.3262 0
1 5.09964 1.40699 0
1 5.96441 1.66261 0
1 6.52272 2.38889 0
1 0.75885 2.40165 0
1 1.6812 2.06692 0
1 2.61038 2.11539 0
1 3.47765 2.48419 0
1 4.5049 2.27839 0
1 5.54053 2.55376 0
1 1.17319 3.35649 0
1 2.09427 2.98992 0
1 3.0028 3.39297 0
1 3.98933 3.36578 0
1 4.94304 3.36469 0
1 5.88609 3.46196 0
1 0.187113 3.34672 0
1 0.550219 4.26893 0
1 1.49328 4.31666 0
1 2.42861 4.13671 0
1 3.39337 4.38896 0
1 4.30721 4.33887 0
1 5.32091 4.37662 0
1 6.2621 4.34623 0
1 0.947303 5.13349 0
1 2.02405 5.15029 0
1 2.90964 5.23002 0
1 3.85903 5.20711 0
1 4.86614 5.19566 0
1 5.78446 5.42737 0
1 0.0242119 5.15024 0
1 0.294632 6.17056 0
1 1.36694 6.06392 0
1 2.2862 6.07148 0
1 3.21965 6.11286 0
1 4.21151 6.11368 0
1 5.18975 6.30329 0
1 6.11959 6.34011 0
49
 Atoms. Timestep: 260
1 6.65262 0.549612 0
1 0.912837 0.267133 0
1 1.90282 0.355471 0
1 2.92574 0.450805 0
1 3.8355 0.368834 0
1 4.78487 0.418217 0
1 5.74839 0.706968 0
1 0.288052 1.45598 0
1 1.25168 1.11435 0
1 2.26418 1.25228 0
1 3.24206 1.38712 0
1 4.2097 1.39382 0
1 5.12838 1.45571 0
1 6.01452 1.64346 0
1 6.51623 2.44377 0
1 0.752309 2.49302 0
1 1.64587 2.11536 0
1 2.65788 2.15159 0
1 3.49519 2.56819 0
1 4.45408 2.35472 0
1 5.44548 2.498 0
1 1.17485 3.3103 0
1 2.12843 3.02178 0
1 3.0057 3.42251 0
1 3.97112 3.31368 0
1 4.89896 3.44123 0
1 5.8456 3.37544 0
1 0.107227 3.31531 0
1 0.487517 4.27259 0
1 1.45844 4.32192 0
1 2.37153 4.17318 0
1 3.37173 4.27941 0
1 4.36588 4.2337 0
1 5.37757 4.3266 0
1 6.31247 4.18434 0
1 0.99704 5.18377 0
1 1.89428 5.25905 0
1 2.88132 5.0821 0
1 3.84262 5.2768 0
1 4.86274 5.19393 0
1 5.79388 5.36119 0
1 6.68621 5.17647 0
1 0.412609 6.0156 0
1 1.34332 6.11446 0
1 2.34194 6.16606 0
1 3.27285 6.16928 0
1 4.22463 6.17958 0
1 5.19139 6.14594 0
1 6.15265 6.4341 0
49
 Atoms. Timestep: 270
1 6.69447 0.503677 0
1 0.841523 0.231902 0
1 1.96275 0.346719 0
1 2.90332 0.436808 0
1 3.88839 0.481142 0
1 4.82023 0.409214 0
1 5.67724 0.666845 0
1 0.333496 1.46723 0
1 1.21112 1.18697 0
1 2.30142 1.25257 0
1 3.22444 1.3777 0
1 4.1239 1.39789 0
1 5.11753 1.51927 0
1 6.13233 1.56036 0
1 6.43189 2.48482 0
1 0.725227 2.46786 0
1 1.62215 2.14577 0
1 2.58202 2.22029 0
1 3.49998 2.45424 0
1 4.43085 2.4725 0
1 5.35093 2.40028 0
1 1.19937 3.39729 0
1 2.10432 3.06128 0
1 2.98967 3.30923 0
1 3.97391 3.40527 0
1 4.92824 3.40416 0
1 5.8458 3.22119 0
1 0.158786 3.38929 0
1 0.548678 4.26092 0
1 1.45096 4.29895 0
1 2.3707 4.22791 0
1 3.44109 4.19476 0
1 4.42181 4.26914 0
1 5.36911 4.30072 0
1 6.29097 4.15441 0
1 0.918241 5.20463 0
1 1.88778 5.30311 0
1 2.79858 5.07748 0
1 3.83986 5.30871 0
1 4.73988 5.18593 0
1 5.75665 5.29335 0
1 0.0133686 5.07489 0
1 0.406671 6.01721 0
1 1.41409 6.16409 0
1 2.41192 6.24581 0
1 3.36759 6.21298 0
1 4.31065 6.24109 0
1 5.21886 6.06591 0
1 6.14191 6.42088 0
49
 Atoms. Timestep: 280
1 6.66922 0.606725 0
1 0.898793 0.193971 0
1 1.81253 0.407545 0
1 2.89253 0.386913 0
1 3.83263 0.53414 0
1 4.81561 0.37935 0
1 5.76428 0.606274 0
1 0.411777 1.53064 0
1 1.3358 1.23699 0
1 2.19658 1.30812 0
1 3.18362 1.4157 0
1 4.18615 1.50066 0
1 5.08115 1.43067 0
1 6.0842 1.48942 0
1 6.39717 2.38765 0
1 0.645637 2.45307 0
1 1.58909 2.13984 0
1 2.52987 2.25626 0
1 3.48261 2.28451 0
1 4.41076 2.54859 0
1 5.41615 2.37325 0
1 1.13842 3.43809 0
1 1.99266 3.11458 0
1 2.99435 3.18831 0
1 3.96426 3.4138 0
1 4.95143 3.31253 0
1 5.91457 3.24542 0
1 0.23459 3.34672 0
1 0.541403 4.27647 0
1 1.54895 4.39434 0
1 2.51154 4.1652 0
1 3.44367 4.28576 0
1 4.37621 4.34429 0
1 5.33431 4.3244 0
1 6.25952 4.1369 0
1 0.960548 5.1664 0
1 1.91462 5.31574 0
1 2.84828 5.14586 0
1 3.70135 5.30353 0
1 4.76936 5.21673 0
1 5.74185 5.16697 0
1 6.63834 5.00597 0
1 0.285649 6.13503 0
1 1.53227 6.19113 0
1 2.48471 6.15199 0
1 3.42826 6.25469 0
1 4.35752 6.2795 0
1 5.26337 6.08548 0
1 6.13475 6.31857 0
49
 Atoms. Timestep: 290
1 0.0547733 0.6849 0
1 0.852068 0.254172 0
1 1.83777 0.419079 0
1 2.77273 0.378769 0
1 3.8013 0.581351 0
1 4.8125 0.425999 0
1 5.75109 0.454425 0
1 0.367313 1.56898 0
1 1.21795 1.19232 0
1 2.25981 1.37747 0
1 3.17572 1.30728 0
1 4.13008 1.59621 0
1 5.168 1.2804 0
1 6.0742 1.42718 0
1 6.43647 2.30332 0
1 0.668968 2.49918 0
1 1.5143 2.20557 0
1 2.52318 2.29997 0
1 3.49927 2.26671 0
1 4.43257 2.50286 0
1 5.46227 2.35957 0
1 1.08845 3.50247 0
1 1.99636 3.14884 0
1 3.00959 3.11759 0
1 3.92815 3.41515 0
1 4.99103 3.33856 0
1 5.92503 3.25149 0
1 0.10849 3.24213 0
1 0.607826 4.28441 0
1 1.6344 4.41058 0
1 2.54259 4.01683 0
1 3.42554 4.41682 0
1 4.33736 4.34655 0
1 5.2594 4.24657 0
1 6.28712 4.1657 0