36
step 0 box  6.708204
Ar 0.559017  0.559017 0.0
Ar 1.677051  0.559017 0.0
Ar 2.795085  0.559017 0.0
Ar 3.913119  0.559017 0.0
Ar 5.031153  0.559017 0.0
Ar 6.149187  0.559017 0.0
Ar 0.559017  1.677051 0.0
Ar 1.677051  1.677051 0.0
Ar 2.795085  1.677051 0.0
Ar 3.913119  1.677051 0.0
Ar 5.031153  1.677051 0.0
Ar 6.149187  1.677051 0.0
Ar 0.559017  2.795085 0.0
Ar 1.677051  2.795085 0.0
Ar 2.795085  2.795085 0.0
Ar 3.913119  2.795085 0.0
Ar 5.031153  2.795085 0.0
Ar 6.149187  2.795085 0.0
Ar 0.559017  3.913119 0.0
Ar 1.677051  3.913119 0.0
Ar 2.795085  3.913119 0.0
Ar 3.913119  3.913119 0.0
Ar 5.031153  3.913119 0.0
Ar 6.149187  3.913119 0.0
Ar 0.559017  5.031153 0.0
Ar 1.677051  5.031153 0.0
Ar 2.795085  5.031153 0.0
Ar 3.913119  5.031153 0.0
Ar 5.031153  5.031153 0.0
Ar 6.149187  5.031153 0.0
Ar 0.559017  6.149187 0.0
Ar 1.677051  6.149187 0.0
Ar 2.795085  6.149187 0.0
Ar 3.913119  6.149187 0.0
Ar 5.031153  6.149187 0.0
Ar 6.149187  6.149187 0.0
36
step 10 box  6.708204
Ar 0.496674  0.555528 0.0
Ar 1.714204  0.554665 0.0
Ar 2.834781  0.677836 0.0
Ar 3.857017  0.590474 0.0
Ar 4.964174  0.567570 0.0
Ar 6.129504  0.605316 0.0
Ar 0.529524  1.692939 0.0
Ar 1.628537  1.580358 0.0
Ar 2.818920  1.744394 0.0
Ar 3.941648  1.629969 0.0
Ar 5.050092  1.696744 0.0
Ar 6.203613  1.624121 0.0
Ar 0.593445  2.801613 0.0
Ar 1.681497  2.787169 0.0
Ar 2.772913  2.764361 0.0
Ar 3.973458  2.799604 0.0
Ar 5.017743  2.687259 0.0
Ar 6.117912  2.763532 0.0
Ar 0.510416  3.851903 0.0
Ar 1.713102  3.896666 0.0
Ar 2.731268  3.849246 0.0
Ar 3.902534  3.954846 0.0
Ar 4.972745  3.975768 0.0
Ar 6.131392  3.833998 0.0
Ar 0.585234  5.084195 0.0
Ar 1.673816  5.051349 0.0
Ar 2.788278  5.021981 0.0
Ar 3.985584  5.063668 0.0
Ar 4.989004  5.141950 0.0
Ar 6.110473  5.059310 0.0
Ar 0.588236  6.141240 0.0
Ar 1.692613  6.136431 0.0
Ar 2.833958  6.113883 0.0
Ar 3.872220  6.164351 0.0
Ar 5.112317  6.142586 0.0
Ar 6.228825  6.140851 0.0
36
step 20 box  6.708204
Ar 0.448116  0.553628 0.0
Ar 1.749660  0.517898 0.0
Ar 2.840149  0.780878 0.0
Ar 3.829648  0.593716 0.0
Ar 4.902639  0.575608 0.0
Ar 6.092673  0.610604 0.0
Ar 0.524492  1.707837 0.0
Ar 1.585507  1.520026 0.0
Ar 2.840910  1.785898 0.0
Ar 3.970333  1.609275 0.0
Ar 5.077342  1.651029 0.0
Ar 6.230210  1.607996 0.0
Ar 0.618381  2.791689 0.0
Ar 1.687253  2.772560 0.0
Ar 2.759512  2.766369 0.0
Ar 4.008134  2.805292 0.0
Ar 5.018668  2.646189 0.0
Ar 6.095191  2.717428 0.0
Ar 0.471953  3.814373 0.0
Ar 1.705228  3.886848 0.0
Ar 2.709478  3.795520 0.0
Ar 3.875055  3.991835 0.0
Ar 4.929157  4.037809 0.0
Ar 6.103298  3.771239 0.0
Ar 0.600268  5.116213 0.0
Ar 1.675860  5.061395 0.0
Ar 2.787248  5.003133 0.0
Ar 4.003894  5.090645 0.0
Ar 4.989786  5.206753 0.0
Ar 6.074522  5.076969 0.0
Ar 0.628569  6.150903 0.0
Ar 1.713072  6.130065 0.0
Ar 2.845479  6.087827 0.0
Ar 3.863212  6.184255 0.0
Ar 5.194732  6.185019 0.0
Ar 6.298042  6.142948 0.0
36
step 30 box  6.708204
Ar 0.416023  0.555004 0.0
Ar 1.785451  0.446949 0.0
Ar 2.800112  0.834414 0.0
Ar 3.829993  0.558874 0.0
Ar 4.854321  0.574701 0.0
Ar 6.029979  0.564971 0.0
Ar 0.552168  1.719127 0.0
Ar 1.554016  1.502439 0.0
Ar 2.866811  1.809865 0.0
Ar 3.999958  1.623790 0.0
Ar 5.116798  1.553048 0.0
Ar 6.215879  1.630204 0.0
Ar 0.629849  2.761797 0.0
Ar 1.694941  2.751156 0.0
Ar 2.758474  2.805018 0.0
Ar 4.001763  2.815606 0.0
Ar 5.040482  2.663487 0.0
Ar 6.088561  2.655354 0.0
Ar 0.444689  3.809618 0.0
Ar 1.646271  3.885442 0.0
Ar 2.734923  3.779993 0.0
Ar 3.824721  4.020856 0.0
Ar 4.906457  4.101356 0.0
Ar 6.060659  3.730415 0.0
Ar 0.598884  5.119288 0.0
Ar 1.685678  5.055919 0.0
Ar 2.793075  4.971335 0.0
Ar 3.957485  5.109097 0.0
Ar 5.031860  5.223125 0.0
Ar 6.048798  5.083862 0.0
Ar 0.688312  6.187558 0.0
Ar 1.741948  6.127192 0.0
Ar 2.822527  6.069694 0.0
Ar 3.895096  6.208769 0.0
Ar 5.281785  6.282391 0.0
Ar 6.348926  6.155956 0.0
36
step 40 box  6.708204
Ar 0.391018  0.562593 0.0
Ar 1.811756  0.392681 0.0
Ar 2.747060  0.816369 0.0
Ar 3.807653  0.526049 0.0
Ar 4.825532  0.541660 0.0
Ar 5.952583  0.505398 0.0
Ar 0.566286  1.714497 0.0
Ar 1.560068  1.493961 0.0
Ar 2.903195  1.849078 0.0
Ar 4.029909  1.652249 0.0
Ar 5.166992  1.489001 0.0
Ar 6.190487  1.627917 0.0
Ar 0.626398  2.739465 0.0
Ar 1.703393  2.724456 0.0
Ar 2.771825  2.828181 0.0
Ar 3.966323  2.829429 0.0
Ar 5.062824  2.685777 0.0
Ar 6.106123  2.613687 0.0
Ar 0.425263  3.824846 0.0
Ar 1.573798  3.886612 0.0
Ar 2.762693  3.846263 0.0
Ar 3.767046  4.041601 0.0
Ar 4.895587  4.163534 0.0
Ar 6.006530  3.704118 0.0
Ar 0.583671  5.108042 0.0
Ar 1.699871  5.036026 0.0
Ar 2.805448  4.929468 0.0
Ar 3.895446  5.125634 0.0
Ar 5.050353  5.236815 0.0
Ar 6.059247  5.081153 0.0
Ar 0.755158  6.236705 0.0
Ar 1.777874  6.099514 0.0
Ar 2.799196  6.056993 0.0
Ar 3.945751  6.221773 0.0
Ar 5.362869  6.383428 0.0
Ar 6.392443  6.172697 0.0
36
step 50 box  6.708204
Ar 0.362862  0.577510 0.0
Ar 1.802619  0.371011 0.0
Ar 2.715537  0.785103 0.0
Ar 3.745753  0.527022 0.0
Ar 4.794724  0.496345 0.0
Ar 5.910089  0.502590 0.0
Ar 0.548122  1.685580 0.0
Ar 1.609348  1.481876 0.0
Ar 2.951256  1.850923 0.0
Ar 4.062084  1.681193 0.0
Ar 5.202429  1.469490 0.0
Ar 6.195538  1.564924 0.0
Ar 0.610639  2.744989 0.0
Ar 1.710950  2.693948 0.0
Ar 2.792742  2.874571 0.0
Ar 3.918987  2.844452 0.0
Ar 5.069212  2.706014 0.0
Ar 6.147775  2.623714 0.0
Ar 0.406577  3.848735 0.0
Ar 1.503693  3.886021 0.0
Ar 2.746727  3.935429 0.0
Ar 3.743331  4.059749 0.0
Ar 4.886395  4.216167 0.0
Ar 5.946250  3.686953 0.0
Ar 0.561501  5.095530 0.0
Ar 1.712750  4.999646 0.0
Ar 2.818973  4.900689 0.0
Ar 3.840071  5.143231 0.0
Ar 5.030893  5.269919 0.0
Ar 6.109235  5.071254 0.0
Ar 0.809322  6.286478 0.0
Ar 1.806003  6.030640 0.0
Ar 2.815623  6.046060 0.0
Ar 4.006568  6.207439 0.0
Ar 5.407257  6.397103 0.0
Ar 6.445835  6.185372 0.0
36
step 60 box  6.708204
Ar 0.327577  0.595661 0.0
Ar 1.742085  0.348106 0.0
Ar 2.706970  0.771905 0.0
Ar 3.676207  0.545613 0.0
Ar 4.748404  0.464416 0.0
Ar 5.925113  0.581534 0.0
Ar 0.533113  1.647616 0.0
Ar 1.676036  1.470982 0.0
Ar 3.003167  1.829683 0.0
Ar 4.098619  1.707361 0.0
Ar 5.191959  1.467128 0.0
Ar 6.245952  1.493585 0.0
Ar 0.588888  2.767289 0.0
Ar 1.717216  2.661216 0.0
Ar 2.814739  2.935773 0.0
Ar 3.872055  2.859303 0.0
Ar 5.065603  2.724161 0.0
Ar 6.204915  2.643630 0.0
Ar 0.378021  3.877572 0.0
Ar 1.443978  3.880305 0.0
Ar 2.667965  3.950555 0.0
Ar 3.765162  4.074457 0.0
Ar 4.875472  4.253338 0.0
Ar 5.882541  3.680450 0.0
Ar 0.540283  5.085266 0.0
Ar 1.719786  4.934760 0.0
Ar 2.822116  4.953410 0.0
Ar 3.809474  5.163004 0.0
Ar 4.999273  5.323675 0.0
Ar 6.168010  5.059871 0.0
Ar 0.848558  6.337420 0.0
Ar 1.823325  5.955926 0.0
Ar 2.883151  6.037405 0.0
Ar 4.077209  6.187481 0.0
Ar 5.399289  6.283287 0.0
Ar 6.505437  6.194522 0.0
36
step 70 box  6.708204
Ar 0.288561  0.605330 0.0
Ar 1.660106  0.321272 0.0
Ar 2.657359  0.776357 0.0
Ar 3.650995  0.556774 0.0
Ar 4.708208  0.431877 0.0
Ar 5.907258  0.577074 0.0
Ar 0.573164  1.629133 0.0
Ar 1.747187  1.463089 0.0
Ar 3.051469  1.811703 0.0
Ar 4.137651  1.731456 0.0
Ar 5.165670  1.472433 0.0
Ar 6.301009  1.501610 0.0
Ar 0.575189  2.794128 0.0
Ar 1.722625  2.628429 0.0
Ar 2.825316  2.967295 0.0
Ar 3.844469  2.871613 0.0
Ar 5.060090  2.740009 0.0
Ar 6.259221  2.652372 0.0
Ar 0.329972  3.910411 0.0
Ar 1.399771  3.860456 0.0
Ar 2.561370  3.949466 0.0
Ar 3.789475  4.079950 0.0
Ar 4.864833  4.279577 0.0
Ar 5.817451  3.682424 0.0
Ar 0.535161  5.077569 0.0
Ar 1.720000  4.843560 0.0
Ar 2.792346  5.038201 0.0
Ar 3.821980  5.183579 0.0
Ar 4.947454  5.353315 0.0
Ar 6.211018  5.050013 0.0
Ar 0.882747  6.387850 0.0
Ar 1.849415  5.897659 0.0
Ar 2.976605  6.042838 0.0
Ar 4.157189  6.183469 0.0
Ar 5.402407  6.192693 0.0
Ar 6.552930  6.202686 0.0
36
step 80 box  6.708204
Ar 0.250786  0.602025 0.0
Ar 1.613789  0.329399 0.0
Ar 2.573340  0.786543 0.0
Ar 3.653785  0.561134 0.0
Ar 4.692425  0.403864 0.0
Ar 5.854042  0.508182 0.0
Ar 0.684605  1.637301 0.0
Ar 1.815698  1.459752 0.0
Ar 3.091638  1.800745 0.0
Ar 4.167421  1.758097 0.0
Ar 5.157752  1.475734 0.0
Ar 6.316928  1.560765 0.0
Ar 0.593879  2.825517 0.0
Ar 1.726694  2.597611 0.0
Ar 2.810573  2.961324 0.0
Ar 3.854250  2.878683 0.0
Ar 5.054980  2.752982 0.0
Ar 6.283538  2.653111 0.0
Ar 0.263548  3.946177 0.0
Ar 1.359510  3.805106 0.0
Ar 2.443381  3.983935 0.0
Ar 3.799601  4.076376 0.0
Ar 4.856735  4.294700 0.0
Ar 5.756268  3.685225 0.0
Ar 0.564243  5.072598 0.0
Ar 1.718004  4.761113 0.0
Ar 2.736066  5.091704 0.0
Ar 3.852870  5.195287 0.0
Ar 4.853411  5.306316 0.0
Ar 6.220135  5.041736 0.0
Ar 0.885040  6.400134 0.0
Ar 1.887580  5.850598 0.0
Ar 3.084446  6.084633 0.0
Ar 4.239796  6.194089 0.0
Ar 5.452241  6.197146 0.0
Ar 6.578676  6.208030 0.0
36
step 90 box  6.708204
Ar 0.215084  0.597585 0.0
Ar 1.615746  0.387923 0.0
Ar 2.537395  0.772850 0.0
Ar 3.645268  0.566317 0.0
Ar 4.717946  0.408054 0.0
Ar 5.798899  0.447403 0.0
Ar 0.813595  1.655124 0.0
Ar 1.852203  1.489531 0.0
Ar 3.117733  1.793255 0.0
Ar 4.179553  1.791808 0.0
Ar 5.183510  1.469347 0.0
Ar 6.316932  1.611397 0.0
Ar 0.644787  2.862554 0.0
Ar 1.727685  2.570100 0.0
Ar 2.776545  2.944053 0.0
Ar 3.889829  2.881961 0.0
Ar 5.049689  2.761616 0.0
Ar 6.274612  2.658819 0.0
Ar 0.187339  3.982738 0.0
Ar 1.304747  3.707896 0.0
Ar 2.348165  4.011531 0.0
Ar 3.793768  4.065672 0.0
Ar 4.849331  4.273071 0.0
Ar 5.708011  3.681897 0.0
Ar 0.618484  5.070555 0.0
Ar 1.693446  4.723547 0.0
Ar 2.685519  5.124039 0.0
Ar 3.827587  5.191602 0.0
Ar 4.810038  5.281525 0.0
Ar 6.205335  5.034558 0.0
Ar 0.853006  6.351798 0.0
Ar 1.926653  5.814721 0.0
Ar 3.200201  6.149300 0.0
Ar 4.305144  6.195522 0.0
Ar 5.503345  6.211405 0.0
Ar 6.570541  6.206594 0.0
36
step 100 box  6.708204
Ar 0.182275  0.595649 0.0
Ar 1.582967  0.440032 0.0
Ar 2.593493  0.734961 0.0
Ar 3.631338  0.572074 0.0
Ar 4.762681  0.453116 0.0
Ar 5.776842  0.450046 0.0
Ar 0.911794  1.680154 0.0
Ar 1.878443  1.550958 0.0
Ar 3.123365  1.786138 0.0
Ar 4.190621  1.828346 0.0
Ar 5.230571  1.456212 0.0
Ar 6.320532  1.634343 0.0
Ar 0.682087  2.877060 0.0
Ar 1.722880  2.553800 0.0
Ar 2.742415  2.925747 0.0
Ar 3.929426  2.886383 0.0
Ar 5.043860  2.763571 0.0
Ar 6.252600  2.687872 0.0
Ar 0.108546  4.018387 0.0
Ar 1.257181  3.619757 0.0
Ar 2.320546  3.979645 0.0
Ar 3.772898  4.049029 0.0
Ar 4.831497  4.221514 0.0
Ar 5.688334  3.664769 0.0
Ar 0.671421  5.073873 0.0
Ar 1.606933  4.749762 0.0
Ar 2.673996  5.131987 0.0
Ar 3.733860  5.178272 0.0
Ar 4.849012  5.289773 0.0
Ar 6.185117  5.028870 0.0
Ar 0.858540  6.290860 0.0
Ar 1.937038  5.811954 0.0
Ar 3.308390  6.217196 0.0
Ar 4.347784  6.183320 0.0
Ar 5.513035  6.165720 0.0
Ar 6.525354  6.196521 0.0
36
step 110 box  6.708204
Ar 0.156025  0.593769 0.0
Ar 1.525328  0.487412 0.0
Ar 2.659341  0.698977 0.0
Ar 3.646543  0.581824 0.0
Ar 4.773816  0.509044 0.0
Ar 5.808052  0.490922 0.0
Ar 0.931474  1.716739 0.0
Ar 1.981569  1.573089 0.0
Ar 3.110469  1.778058 0.0
Ar 4.214577  1.858061 0.0
Ar 5.280292  1.448156 0.0
Ar 6.334200  1.633143 0.0
Ar 0.633321  2.792778 0.0
Ar 1.706976  2.573015 0.0
Ar 2.721050  2.906615 0.0
Ar 3.960358  2.899372 0.0
Ar 5.039503  2.756403 0.0
Ar 6.228058  2.735155 0.0
Ar 0.032493  4.052176 0.0
Ar 1.282333  3.632756 0.0
Ar 2.319345  3.928837 0.0
Ar 3.736145  4.027446 0.0
Ar 4.794544  4.174675 0.0
Ar 5.704148  3.635511 0.0
Ar 0.648526  5.105506 0.0
Ar 1.567892  4.768238 0.0
Ar 2.680048  5.103061 0.0
Ar 3.659821  5.166361 0.0
Ar 4.909091  5.275540 0.0
Ar 6.164422  5.026443 0.0
Ar 0.888564  6.228513 0.0
Ar 1.907819  5.850141 0.0
Ar 3.382245  6.280284 0.0
Ar 4.392103  6.184675 0.0
Ar 5.472227  6.089678 0.0
Ar 6.494948  6.185299 0.0
36
step 120 box  6.708204
Ar 0.153899  0.591757 0.0
Ar 1.464272  0.536874 0.0
Ar 2.674410  0.665167 0.0
Ar 3.724458  0.611066 0.0
Ar 4.753035  0.556443 0.0
Ar 5.857605  0.524009 0.0
Ar 0.924573  1.747188 0.0
Ar 2.110939  1.565947 0.0
Ar 3.095489  1.769918 0.0
Ar 4.248849  1.874116 0.0
Ar 5.319844  1.460062 0.0
Ar 6.365413  1.624172 0.0
Ar 0.556668  2.688833 0.0
Ar 1.676431  2.615689 0.0
Ar 2.720055  2.882551 0.0
Ar 3.975337  2.925652 0.0
Ar 5.041448  2.739430 0.0
Ar 6.211506  2.762979 0.0
Ar 6.674727  4.084128 0.0
Ar 1.315403  3.674085 0.0
Ar 2.331871  3.887892 0.0
Ar 3.681358  4.003542 0.0
Ar 4.752693  4.132657 0.0
Ar 5.722499  3.626140 0.0
Ar 0.540982  5.165393 0.0
Ar 1.606404  4.757901 0.0
Ar 2.628163  5.055468 0.0
Ar 3.663567  5.162821 0.0
Ar 4.943945  5.190273 0.0
Ar 6.139954  5.031546 0.0
Ar 0.911749  6.173837 0.0
Ar 1.877456  5.897111 0.0
Ar 3.404415  6.323211 0.0
Ar 4.447960  6.198578 0.0
Ar 5.444690  6.064099 0.0
Ar 6.493807  6.177137 0.0
36
step 130 box  6.708204
Ar 0.204034  0.590045 0.0
Ar 1.402811  0.588333 0.0
Ar 2.671914  0.619371 0.0
Ar 3.794771  0.666536 0.0
Ar 4.761142  0.591409 0.0
Ar 5.873563  0.540347 0.0
Ar 0.934497  1.729241 0.0
Ar 2.173328  1.557909 0.0
Ar 3.137794  1.771677 0.0
Ar 4.286361  1.877614 0.0
Ar 5.343966  1.495646 0.0
Ar 6.418100  1.616576 0.0
Ar 0.482571  2.628165 0.0
Ar 1.637920  2.655715 0.0
Ar 2.738348  2.848067 0.0
Ar 3.975481  2.959312 0.0
Ar 5.052872  2.715363 0.0
Ar 6.200096  2.740247 0.0
Ar 6.634157  4.116304 0.0
Ar 1.318406  3.708439 0.0
Ar 2.369038  3.864355 0.0
Ar 3.609433  3.982728 0.0
Ar 4.710058  4.078235 0.0
Ar 5.702845  3.661121 0.0
Ar 0.424539  5.216374 0.0
Ar 1.628188  4.744699 0.0
Ar 2.567856  5.006185 0.0
Ar 3.707854  5.165966 0.0
Ar 4.954776  5.069605 0.0
Ar 6.101257  5.049551 0.0
Ar 0.892931  6.149233 0.0
Ar 1.892123  5.930906 0.0
Ar 3.394173  6.345692 0.0
Ar 4.471178  6.215832 0.0
Ar 5.475248  6.079682 0.0
Ar 6.512246  6.171191 0.0
36
step 140 box  6.708204
Ar 0.287058  0.586350 0.0
Ar 1.343066  0.641183 0.0
Ar 2.673717  0.560537 0.0
Ar 3.786251  0.738879 0.0
Ar 4.842964  0.611150 0.0
Ar 5.871671  0.544078 0.0
Ar 0.967460  1.660406 0.0
Ar 2.153342  1.552389 0.0
Ar 3.249174  1.783727 0.0
Ar 4.321587  1.873135 0.0
Ar 5.362574  1.551391 0.0
Ar 6.485798  1.610700 0.0
Ar 0.445389  2.606833 0.0
Ar 1.598916  2.686079 0.0
Ar 2.767338  2.803665 0.0
Ar 3.970062  2.988401 0.0
Ar 5.070500  2.689490 0.0
Ar 6.142789  2.698648 0.0
Ar 6.626908  4.151089 0.0
Ar 1.297046  3.732213 0.0
Ar 2.421322  3.854273 0.0
Ar 3.523437  3.972110 0.0
Ar 4.649705  3.989135 0.0
Ar 5.655967  3.705767 0.0
Ar 0.325535  5.244522 0.0
Ar 1.576409  4.726975 0.0
Ar 2.582704  4.974855 0.0
Ar 3.759605  5.171297 0.0
Ar 4.967672  4.984313 0.0
Ar 6.029888  5.078563 0.0
Ar 0.856269  6.160716 0.0
Ar 1.944517  5.953114 0.0
Ar 3.370238  6.362444 0.0
Ar 4.456543  6.233178 0.0
Ar 5.527532  6.093211 0.0
Ar 6.544922  6.172855 0.0
36
step 150 box  6.708204
Ar 0.348636  0.577583 0.0
Ar 1.320214  0.677840 0.0
Ar 2.673143  0.501852 0.0
Ar 3.757055  0.815176 0.0
Ar 4.907564  0.619966 0.0
Ar 5.905211  0.540275 0.0
Ar 0.999978  1.595350 0.0
Ar 2.117880  1.551673 0.0
Ar 3.354572  1.793438 0.0
Ar 4.359576  1.864403 0.0
Ar 5.393505  1.620178 0.0
Ar 6.558697  1.604274 0.0
Ar 0.448067  2.591859 0.0
Ar 1.564904  2.702824 0.0
Ar 2.799107  2.756297 0.0
Ar 3.965735  3.005234 0.0
Ar 5.073323  2.669785 0.0
Ar 6.058655  2.655692 0.0
Ar 6.638232  4.188174 0.0
Ar 1.261029  3.732652 0.0
Ar 2.460335  3.847956 0.0
Ar 3.438845  3.975577 0.0
Ar 4.560063  3.877986 0.0
Ar 5.613325  3.742678 0.0
Ar 0.268782  5.242455 0.0
Ar 1.497767  4.733022 0.0
Ar 2.637609  4.953123 0.0
Ar 3.813632  5.177233 0.0
Ar 4.965849  4.926367 0.0
Ar 5.937579  5.108491 0.0
Ar 0.861940  6.195390 0.0
Ar 2.004774  5.970577 0.0
Ar 3.340356  6.376797 0.0
Ar 4.434620  6.249095 0.0
Ar 5.550889  6.105509 0.0
Ar 6.564428  6.200889 0.0
36
step 160 box  6.708204
Ar 0.339279  0.559024 0.0
Ar 1.400576  0.643703 0.0
Ar 2.657186  0.458835 0.0
Ar 3.739833  0.869511 0.0
Ar 4.915890  0.627806 0.0
Ar 5.992890  0.531898 0.0
Ar 1.002121  1.605379 0.0
Ar 2.087361  1.552992 0.0
Ar 3.402875  1.816825 0.0
Ar 4.418596  1.849329 0.0
Ar 5.450058  1.682709 0.0
Ar 6.627816  1.596712 0.0
Ar 0.457877  2.576818 0.0
Ar 1.542023  2.701109 0.0
Ar 2.828332  2.713943 0.0
Ar 3.944520  2.984569 0.0
Ar 5.013538  2.674904 0.0
Ar 6.031814  2.609315 0.0
Ar 6.651908  4.221716 0.0
Ar 1.214075  3.712134 0.0
Ar 2.423246  3.830429 0.0
Ar 3.416077  3.997482 0.0
Ar 4.472611  3.788729 0.0
Ar 5.581773  3.775295 0.0
Ar 0.249065  5.224268 0.0
Ar 1.427253  4.773816 0.0
Ar 2.697528  4.933768 0.0
Ar 3.866729  5.183590 0.0
Ar 4.902154  4.862209 0.0
Ar 5.891154  5.135355 0.0
Ar 0.920166  6.238886 0.0
Ar 2.066945  5.985864 0.0
Ar 3.315567  6.378171 0.0
Ar 4.415619  6.263743 0.0
Ar 5.528685  6.128824 0.0
Ar 6.562736  6.258012 0.0
36
step 170 box  6.708204
Ar 0.339195  0.541143 0.0
Ar 1.519873  0.573485 0.0
Ar 2.615495  0.443942 0.0
Ar 3.742433  0.875292 0.0
Ar 4.906352  0.638064 0.0
Ar 6.066414  0.527361 0.0
Ar 0.995169  1.646370 0.0
Ar 2.069886  1.556785 0.0
Ar 3.400534  1.868979 0.0
Ar 4.472985  1.804562 0.0
Ar 5.530745  1.718402 0.0
Ar 6.676906  1.587138 0.0
Ar 0.462011  2.568002 0.0
Ar 1.536975  2.678886 0.0
Ar 2.841203  2.691284 0.0
Ar 3.869465  2.880718 0.0
Ar 4.932414  2.728977 0.0
Ar 6.053643  2.570477 0.0
Ar 6.658245  4.235174 0.0
Ar 1.159793  3.694231 0.0
Ar 2.325577  3.800830 0.0
Ar 3.435674  4.033784 0.0
Ar 4.444308  3.771922 0.0
Ar 5.553643  3.806800 0.0
Ar 0.257286  5.226236 0.0
Ar 1.361681  4.829036 0.0
Ar 2.757289  4.916122 0.0
Ar 3.902790  5.195221 0.0
Ar 4.815040  4.782851 0.0
Ar 5.879136  5.153022 0.0
Ar 0.996330  6.284335 0.0
Ar 2.131751  6.001469 0.0
Ar 3.306198  6.353773 0.0
Ar 4.398623  6.277734 0.0
Ar 5.476446  6.169406 0.0
Ar 6.564368  6.315856 0.0
36
step 180 box  6.708204
Ar 0.422919  0.539970 0.0
Ar 1.622182  0.505748 0.0
Ar 2.575913  0.445234 0.0
Ar 3.754659  0.852900 0.0
Ar 4.896281  0.650270 0.0
Ar 6.058527  0.545096 0.0
Ar 1.015302  1.673820 0.0
Ar 2.069033  1.563536 0.0
Ar 3.401547  1.884873 0.0
Ar 4.506970  1.731214 0.0
Ar 5.599792  1.699100 0.0
Ar 6.685829  1.571991 0.0
Ar 0.456863  2.577844 0.0
Ar 1.551629  2.644606 0.0
Ar 2.788064  2.716376 0.0
Ar 3.800239  2.768945 0.0
Ar 4.876904  2.811294 0.0
Ar 6.103212  2.578798 0.0
Ar 6.655298  4.224227 0.0
Ar 1.099790  3.684625 0.0
Ar 2.221540  3.768655 0.0
Ar 3.441606  4.072070 0.0
Ar 4.445082  3.758271 0.0
Ar 5.528969  3.838578 0.0
Ar 0.284443  5.259600 0.0
Ar 1.298261  4.885524 0.0
Ar 2.811991  4.903950 0.0
Ar 3.888583  5.228720 0.0
Ar 4.777989  4.694577 0.0
Ar 5.868865  5.161590 0.0
Ar 1.070227  6.324895 0.0
Ar 2.199090  6.019836 0.0
Ar 3.302115  6.312464 0.0
Ar 4.377914  6.292791 0.0
Ar 5.425134  6.221254 0.0
Ar 6.573113  6.334427 0.0
36
step 190 box  6.708204
Ar 0.539031  0.554456 0.0
Ar 1.628398  0.470450 0.0
Ar 2.641635  0.446268 0.0
Ar 3.769297  0.815457 0.0
Ar 4.889526  0.659559 0.0
Ar 6.016864  0.584225 0.0
Ar 1.048813  1.680975 0.0
Ar 2.090535  1.570205 0.0
Ar 3.379556  1.804165 0.0
Ar 4.531625  1.658798 0.0
Ar 5.642049  1.635795 0.0
Ar 6.672601  1.550873 0.0
Ar 0.459724  2.605672 0.0
Ar 1.581940  2.613190 0.0
Ar 2.668860  2.768003 0.0
Ar 3.796387  2.737998 0.0
Ar 4.857581  2.861285 0.0
Ar 6.152833  2.627603 0.0
Ar 6.648440  4.205547 0.0
Ar 1.032915  3.677228 0.0
Ar 2.123204  3.735890 0.0
Ar 3.442721  4.094517 0.0
Ar 4.420958  3.712517 0.0
Ar 5.514742  3.868554 0.0
Ar 0.304977  5.311255 0.0
Ar 1.248293  4.934877 0.0
Ar 2.844637  4.914073 0.0
Ar 3.847123  5.279232 0.0
Ar 4.789669  4.649977 0.0
Ar 5.857815  5.166212 0.0
Ar 1.126238  6.335130 0.0
Ar 2.263563  6.041204 0.0
Ar 3.292461  6.266171 0.0
Ar 4.347313  6.311724 0.0
Ar 5.397512  6.278289 0.0
Ar 6.586039  6.320298 0.0
36
step 200 box  6.708204
Ar 0.637086  0.579432 0.0
Ar 1.623859  0.499947 0.0
Ar 2.764456  0.452439 0.0
Ar 3.788438  0.755374 0.0
Ar 4.891236  0.648881 0.0
Ar 5.979874  0.619037 0.0
Ar 1.066406  1.668156 0.0
Ar 2.138564  1.573418 0.0
Ar 3.328778  1.694009 0.0
Ar 4.543019  1.610854 0.0
Ar 5.649730  1.573568 0.0
Ar 6.679285  1.528226 0.0
Ar 0.498718  2.639028 0.0
Ar 1.608265  2.594074 0.0
Ar 2.559934  2.813898 0.0
Ar 3.806690  2.750380 0.0
Ar 4.904602  2.817329 0.0
Ar 6.161141  2.681753 0.0
Ar 6.640986  4.189687 0.0
Ar 0.955869  3.668018 0.0
Ar 2.031296  3.708072 0.0
Ar 3.444210  4.093375 0.0
Ar 4.350282  3.698293 0.0
Ar 5.516884  3.886596 0.0
Ar 0.290153  5.371696 0.0
Ar 1.236458  4.966624 0.0
Ar 2.836347  4.956883 0.0
Ar 3.817761  5.330381 0.0
Ar 4.813121  4.664934 0.0
Ar 5.848362  5.169260 0.0
Ar 1.145289  6.274827 0.0
Ar 2.302554  6.061029 0.0
Ar 3.288323  6.222131 0.0
Ar 4.314990  6.338016 0.0
Ar 5.396472  6.337903 0.0
Ar 6.596435  6.310145 0.0
36
step 210 box  6.708204
Ar 0.667237  0.610347 0.0
Ar 1.694172  0.554496 0.0
Ar 2.862927  0.466676 0.0
Ar 3.833040  0.673652 0.0
Ar 4.901760  0.607161 0.0
Ar 5.971484  0.608263 0.0
Ar 1.072275  1.638375 0.0
Ar 2.201561  1.574156 0.0
Ar 3.266564  1.602626 0.0
Ar 4.533113  1.601991 0.0
Ar 5.613477  1.558226 0.0
Ar 0.003836  1.508134 0.0
Ar 0.553736  2.666180 0.0
Ar 1.570434  2.573575 0.0
Ar 2.545798  2.849300 0.0
Ar 3.805189  2.756413 0.0
Ar 4.982575  2.738070 0.0
Ar 6.139557  2.732969 0.0
Ar 6.631276  4.180167 0.0
Ar 0.870630  3.660103 0.0
Ar 1.937957  3.701781 0.0
Ar 3.398122  4.102016 0.0
Ar 4.322169  3.683096 0.0
Ar 5.532042  3.886303 0.0
Ar 0.258346  5.407246 0.0
Ar 1.255906  4.984367 0.0
Ar 2.794946  5.016393 0.0
Ar 3.824686  5.354729 0.0
Ar 4.825255  4.711200 0.0
Ar 5.842617  5.171902 0.0
Ar 1.146253  6.181689 0.0
Ar 2.284771  6.075016 0.0
Ar 3.297125  6.200700 0.0
Ar 4.303292  6.375717 0.0
Ar 5.412580  6.393585 0.0
Ar 6.590960  6.341051 0.0
36
step 220 box  6.708204
Ar 0.654917  0.629431 0.0
Ar 1.803447  0.604989 0.0
Ar 2.892315  0.485205 0.0
Ar 3.919512  0.602758 0.0
Ar 4.916485  0.573048 0.0
Ar 6.001591  0.569796 0.0
Ar 1.084132  1.597007 0.0
Ar 2.244785  1.577857 0.0
Ar 3.225626  1.521167 0.0
Ar 4.500824  1.614791 0.0
Ar 5.562386  1.587111 0.0
Ar 0.029573  1.493787 0.0
Ar 0.558814  2.668465 0.0
Ar 1.535279  2.554090 0.0
Ar 2.600216  2.874360 0.0
Ar 3.793658  2.744540 0.0
Ar 5.060218  2.655409 0.0
Ar 6.113183  2.782113 0.0
Ar 6.610268  4.182918 0.0
Ar 0.791060  3.668253 0.0
Ar 1.845688  3.713190 0.0
Ar 3.314283  4.124215 0.0
Ar 4.350034  3.663462 0.0
Ar 5.549536  3.874354 0.0
Ar 0.234262  5.400030 0.0
Ar 1.286178  4.997259 0.0
Ar 2.739745  5.085258 0.0
Ar 3.870880  5.329587 0.0
Ar 4.824966  4.764569 0.0
Ar 5.842760  5.175049 0.0
Ar 1.140271  6.089969 0.0
Ar 2.226423  6.087800 0.0
Ar 3.287593  6.212259 0.0
Ar 4.325475  6.409561 0.0
Ar 5.441317  6.416155 0.0
Ar 6.569973  6.417859 0.0
36
step 230 box  6.708204
Ar 0.637624  0.615229 0.0
Ar 1.894992  0.639260 0.0
Ar 2.883571  0.504239 0.0
Ar 3.955795  0.595075 0.0
Ar 4.969991  0.589639 0.0
Ar 6.043088  0.586760 0.0
Ar 1.114744  1.557034 0.0
Ar 2.225056  1.603248 0.0
Ar 3.261278  1.449191 0.0
Ar 4.446081  1.632774 0.0
Ar 5.525953  1.621967 0.0
Ar 0.027081  1.492569 0.0
Ar 0.485729  2.639481 0.0
Ar 1.572421  2.544095 0.0
Ar 2.665597  2.894984 0.0
Ar 3.776867  2.717516 0.0
Ar 5.113334  2.573312 0.0
Ar 6.105098  2.833762 0.0
Ar 6.562799  4.210600 0.0
Ar 0.731499  3.689211 0.0
Ar 1.770582  3.725723 0.0
Ar 3.229473  4.145602 0.0
Ar 4.395800  3.653723 0.0
Ar 5.558625  3.856751 0.0
Ar 0.214030  5.377741 0.0
Ar 1.321345  4.999659 0.0
Ar 2.685325  5.159291 0.0
Ar 3.921339  5.288491 0.0
Ar 4.823137  4.808526 0.0
Ar 5.848776  5.178932 0.0
Ar 1.119456  6.012058 0.0
Ar 2.161366  6.106613 0.0
Ar 3.269294  6.224396 0.0
Ar 4.379484  6.372814 0.0
Ar 5.478598  6.373368 0.0
Ar 6.572444  6.474038 0.0
36
step 240 box  6.708204
Ar 0.620359  0.570765 0.0
Ar 1.910102  0.645209 0.0
Ar 2.895042  0.494320 0.0
Ar 3.945328  0.618857 0.0
Ar 5.048573  0.634730 0.0
Ar 6.067699  0.678653 0.0
Ar 1.154048  1.526628 0.0
Ar 2.195960  1.665872 0.0
Ar 3.338056  1.420893 0.0
Ar 4.378135  1.651339 0.0
Ar 5.518458  1.623635 0.0
Ar 0.005893  1.507880 0.0
Ar 0.403308  2.590756 0.0
Ar 1.626420  2.546735 0.0
Ar 2.725188  2.916241 0.0
Ar 3.765511  2.681739 0.0
Ar 5.114885  2.520131 0.0
Ar 6.122633  2.894289 0.0
Ar 6.495553  4.268652 0.0
Ar 0.682297  3.700827 0.0
Ar 1.724555  3.735623 0.0
Ar 3.148283  4.165429 0.0
Ar 4.446372  3.648739 0.0
Ar 5.547892  3.834563 0.0
Ar 0.198223  5.350076 0.0
Ar 1.364201  4.971283 0.0
Ar 2.639342  5.228044 0.0
Ar 3.933085  5.264409 0.0
Ar 4.848600  4.825592 0.0
Ar 5.856092  5.183799 0.0
Ar 1.070037  5.969299 0.0
Ar 2.110499  6.141805 0.0
Ar 3.258140  6.220947 0.0
Ar 4.443099  6.288058 0.0
Ar 5.521886  6.297649 0.0
Ar 6.623916  6.464204 0.0
36
step 250 box  6.708204
Ar 0.609848  0.525510 0.0
Ar 1.855130  0.638632 0.0
Ar 2.922455  0.464363 0.0
Ar 3.970129  0.603447 0.0
Ar 5.088262  0.670483 0.0
Ar 6.113939  0.754669 0.0
Ar 1.174806  1.500695 0.0
Ar 2.209318  1.728403 0.0
Ar 3.378795  1.459871 0.0
Ar 4.334069  1.675336 0.0
Ar 5.542489  1.581966 0.0
Ar 6.703377  1.547103 0.0
Ar 0.355161  2.529291 0.0
Ar 1.664784  2.576693 0.0
Ar 2.765089  2.941725 0.0
Ar 3.774295  2.637908 0.0
Ar 5.070154  2.531292 0.0
Ar 6.129799  2.962955 0.0
Ar 6.436334  4.342136 0.0
Ar 0.624306  3.700999 0.0
Ar 1.706421  3.743966 0.0
Ar 3.068182  4.185205 0.0
Ar 4.492592  3.642397 0.0
Ar 5.513538  3.811384 0.0
Ar 0.189546  5.315321 0.0
Ar 1.414878  4.916884 0.0
Ar 2.605180  5.280599 0.0
Ar 3.899792  5.259128 0.0
Ar 4.899250  4.813445 0.0
Ar 5.858860  5.195160 0.0
Ar 1.001930  5.962491 0.0
Ar 2.071468  6.201576 0.0
Ar 3.259416  6.194739 0.0
Ar 4.494960  6.203743 0.0
Ar 5.574950  6.222630 0.0
Ar 6.682374  6.425526 0.0
36
step 260 box  6.708204
Ar 0.617856  0.505012 0.0
Ar 1.786542  0.626449 0.0
Ar 2.929116  0.448472 0.0
Ar 4.026089  0.559206 0.0
Ar 5.078816  0.667452 0.0
Ar 6.184007  0.736246 0.0
Ar 1.171008  1.483739 0.0
Ar 2.269882  1.756618 0.0
Ar 3.334386  1.520190 0.0
Ar 4.367886  1.705529 0.0
Ar 5.566747  1.591605 0.0
Ar 0.012306  1.603497 0.0
Ar 0.356558  2.488746 0.0
Ar 1.674228  2.645064 0.0
Ar 2.781250  2.973208 0.0
Ar 3.804404  2.590685 0.0
Ar 5.011604  2.571361 0.0
Ar 6.124020  3.026428 0.0
Ar 6.398136  4.384508 0.0
Ar 0.558999  3.693427 0.0
Ar 1.702789  3.752131 0.0
Ar 2.986659  4.205567 0.0
Ar 4.506371  3.627560 0.0
Ar 5.481851  3.807075 0.0
Ar 0.191965  5.275990 0.0
Ar 1.467070  4.859041 0.0
Ar 2.578732  5.314952 0.0
Ar 3.851095  5.253067 0.0
Ar 4.931085  4.781801 0.0
Ar 5.853587  5.223519 0.0
Ar 0.950448  5.977499 0.0
Ar 2.036933  6.279538 0.0
Ar 3.273390  6.147359 0.0
Ar 4.534087  6.126686 0.0
Ar 5.631874  6.173620 0.0
Ar 0.007690  6.364826 0.0
36
step 270 box  6.708204
Ar 0.638895  0.503218 0.0
Ar 1.726045  0.613318 0.0
Ar 2.919825  0.446562 0.0
Ar 4.067339  0.511132 0.0
Ar 5.069772  0.640938 0.0
Ar 6.252299  0.653823 0.0
Ar 1.151612  1.490325 0.0
Ar 2.327071  1.772017 0.0
Ar 3.278190  1.573257 0.0
Ar 4.440928  1.706635 0.0
Ar 5.588418  1.642884 0.0
Ar 0.014938  1.588660 0.0
Ar 0.416505  2.549599 0.0
Ar 1.669132  2.718839 0.0
Ar 2.784376  3.007818 0.0
Ar 3.835725  2.558727 0.0
Ar 4.958820  2.628785 0.0
Ar 6.137345  3.060789 0.0
Ar 6.377094  4.355362 0.0
Ar 0.494951  3.678431 0.0
Ar 1.705254  3.762835 0.0
Ar 2.901769  4.226501 0.0
Ar 4.459924  3.599505 0.0
Ar 5.473122  3.840038 0.0
Ar 0.214495  5.242623 0.0
Ar 1.517154  4.808816 0.0
Ar 2.550404  5.334348 0.0
Ar 3.805535  5.227072 0.0
Ar 4.925816  4.737120 0.0
Ar 5.848475  5.231481 0.0
Ar 0.958098  5.999821 0.0
Ar 2.011228  6.352238 0.0
Ar 3.291059  6.110103 0.0
Ar 4.565822  6.056390 0.0
Ar 5.669776  6.211521 0.0
Ar 6.700458  6.306141 0.0
36
step 280 box  6.708204
Ar 0.656593  0.500254 0.0
Ar 1.678279  0.628998 0.0
Ar 2.902864  0.451666 0.0
Ar 4.063230  0.458143 0.0
Ar 5.104687  0.615583 0.0
Ar 6.299599  0.548917 0.0
Ar 1.122815  1.526007 0.0
Ar 2.299498  1.801868 0.0
Ar 3.305388  1.604075 0.0
Ar 4.519533  1.666469 0.0
Ar 5.610544  1.698156 0.0
Ar 0.015452  1.553504 0.0
Ar 0.501776  2.639865 0.0
Ar 1.658050  2.763841 0.0
Ar 2.782212  3.042643 0.0
Ar 3.854570  2.548387 0.0
Ar 4.927195  2.695648 0.0
Ar 6.171430  3.070653 0.0
Ar 6.371678  4.291404 0.0
Ar 0.445618  3.655407 0.0
Ar 1.714817  3.779483 0.0
Ar 2.812139  4.247326 0.0
Ar 4.380265  3.572922 0.0
Ar 5.456321  3.873124 0.0
Ar 0.254306  5.211159 0.0
Ar 1.561849  4.781261 0.0
Ar 2.516374  5.343496 0.0
Ar 3.774277  5.166183 0.0
Ar 4.883338  4.702330 0.0
Ar 5.845015  5.219834 0.0
Ar 1.016936  6.021700 0.0
Ar 2.010247  6.382296 0.0
Ar 3.302709  6.111693 0.0
Ar 4.592740  5.989631 0.0
Ar 5.666534  6.318708 0.0
Ar 6.668792  6.265039 0.0
36
step 290 box  6.708204
Ar 0.654876  0.488425 0.0
Ar 1.663005  0.677612 0.0
Ar 2.880775  0.462279 0.0
Ar 4.033969  0.401465 0.0
Ar 5.163375  0.600804 0.0
Ar 6.318827  0.460714 0.0
Ar 1.091124  1.586678 0.0
Ar 2.222695  1.839260 0.0
Ar 3.378107  1.613876 0.0
Ar 4.587978  1.609312 0.0
Ar 5.637434  1.752532 0.0
Ar 0.019773  1.523798 0.0
Ar 0.594563  2.678264 0.0
Ar 1.643587  2.764345 0.0
Ar 2.776505  3.076866 0.0
Ar 3.862980  2.549990 0.0
Ar 4.929870  2.745801 0.0
Ar 6.210120  3.072239 0.0
Ar 6.371131  4.255902 0.0
Ar 0.438296  3.646826 0.0
Ar 1.735052  3.791205 0.0
Ar 2.718486  4.266995 0.0
Ar 4.283070  3.572085 0.0
Ar 5.415960  3.857237 0.0
Ar 0.302417  5.175680 0.0
Ar 1.593812  4.798114 0.0
Ar 2.485433  5.352567 0.0
Ar 3.750060  5.086017 0.0
Ar 4.803843  4.703229 0.0
Ar 5.839240  5.220151 0.0
Ar 1.073041  6.040205 0.0
Ar 2.048792  6.374806 0.0
Ar 3.312310  6.137269 0.0
Ar 4.614491  5.922591 0.0
Ar 5.614759  6.429552 0.0
Ar 6.677916  6.212980 0.0
36
step 300 box  6.708204
Ar 0.642841  0.469513 0.0
Ar 1.688953  0.735004 0.0
Ar 2.855421  0.479344 0.0
Ar 4.002539  0.344501 0.0
Ar 5.193257  0.656786 0.0
Ar 6.322274  0.432751 0.0
Ar 1.066447  1.661914 0.0
Ar 2.149642  1.865564 0.0
Ar 3.445442  1.600588 0.0
Ar 4.633713  1.550977 0.0
Ar 5.675411  1.809128 0.0
Ar 0.018977  1.492661 0.0
Ar 0.670334  2.635609 0.0
Ar 1.646609  2.740600 0.0
Ar 2.766909  3.110695 0.0
Ar 3.868726  2.562059 0.0
Ar 4.961218  2.777853 0.0
Ar 6.244838  3.069474 0.0
Ar 6.343425  4.265666 0.0
Ar 0.485556  3.671807 0.0
Ar 1.753975  3.786326 0.0
Ar 2.633174  4.288590 0.0
Ar 4.178132  3.597779 0.0
Ar 5.357644  3.807761 0.0
Ar 0.355872  5.133251 0.0
Ar 1.599468  4.847508 0.0
Ar 2.477852  5.373006 0.0
Ar 3.718311  5.007269 0.0
Ar 4.713046  4.724886 0.0
Ar 5.830973  5.231244 0.0
Ar 1.103823  6.050003 0.0
Ar 2.122794  6.368886 0.0
Ar 3.323466  6.164853 0.0
Ar 4.630120  5.852509 0.0
Ar 5.560266  6.445978 0.0
Ar 6.706223  6.135326 0.0
36
step 310 box  6.708204
Ar 0.650336  0.448317 0.0
Ar 1.733053  0.792841 0.0
Ar 2.833667  0.507403 0.0
Ar 3.977962  0.294455 0.0
Ar 5.212019  0.755916 0.0
Ar 6.309709  0.439847 0.0